24
A.log	Energy: -336374.8927389
C          0.00000        2.48282        1.40977
C          0.00000        3.66616        0.71434
C          0.00000        3.66616       -0.71434
C          0.00000        2.48282       -1.40977
C          0.00000        1.22539       -0.72321
C          0.00000        1.22539        0.72321
C          0.00000        0.00000        1.40662
C          0.00000        0.00000       -1.40662
C          0.00000       -1.22539       -0.72321
C          0.00000       -1.22539        0.72321
C          0.00000       -2.48282        1.40977
C          0.00000       -2.48282       -1.40977
C          0.00000       -3.66616       -0.71434
C          0.00000       -3.66616        0.71434
H          0.00000        2.48286        2.50099
H          0.00000        4.61624        1.25006
H          0.00000        4.61624       -1.25006
H          0.00000        2.48286       -2.50099
H          0.00000        0.00000        2.49842
H          0.00000        0.00000       -2.49842
H          0.00000       -2.48286        2.50099
H          0.00000       -2.48286       -2.50099
H          0.00000       -4.61624       -1.25006
H          0.00000       -4.61624        1.25006
