24
AB1aB8a.log	Energy: -319792.5404759
C         -3.71697       -0.78301        0.00008
C         -2.50915       -1.43095       -0.00010
C         -1.26612       -0.68972       -0.00001
C         -2.69106        1.48875        0.00014
C         -3.79801        0.65504        0.00021
C         -0.06316       -1.35822        0.00008
C          0.06930        1.64809       -0.00071
C          1.23655       -0.67668       -0.00006
C          2.39943       -1.43113       -0.00011
H          2.36267       -2.52531       -0.00012
C          3.68631       -0.81089        0.00003
C          3.86556        0.57359        0.00021
C          2.75546        1.44066        0.00026
H         -0.05511       -2.45784        0.00005
H         -4.64478       -1.35590        0.00014
H         -2.48203       -2.52476       -0.00015
H         -2.87798        2.56652        0.00015
H         -4.80471        1.08572        0.00033
H          0.07203        2.74599       -0.00013
H          4.56779       -1.45535        0.00005
H          4.88654        0.96269        0.00034
H          2.95994        2.51597        0.00037
B         -1.30532        0.87297       -0.00006
B          1.34669        0.86484       -0.00016
