24
AB3B7.log	Energy: -319784.1870284
C          3.74824        0.70821        0.00000
C          2.55653        1.37286       -0.00001
C          1.27106        0.68915       -0.00001
C          1.21180       -0.77337       -0.00001
C          2.37096       -1.51838        0.00001
C          0.09798        1.39706       -0.00001
C         -0.09798       -1.39706       -0.00001
C         -1.27106       -0.68915       -0.00001
C         -1.21180        0.77337       -0.00001
C         -2.37096        1.51838        0.00001
H         -2.25751        2.60692        0.00001
C         -3.74824       -0.70821        0.00000
C         -2.55653       -1.37286       -0.00001
H          0.12964        2.48884       -0.00002
H          4.66196        1.30778        0.00001
H          2.51396        2.46661       -0.00001
H          2.25751       -2.60692        0.00002
H          4.77332       -1.46983        0.00007
H         -0.12964       -2.48884       -0.00002
H         -4.77332        1.46983        0.00004
H         -4.66196       -1.30778        0.00000
H         -2.51396       -2.46661       -0.00002
B          3.75784       -0.82809        0.00001
B         -3.75784        0.82809        0.00003
