24
AB4aB8a.log	Energy: -319798.3257135
C          3.77089        0.69133       -0.00001
C          2.62559        1.42794       -0.00013
C          1.31907        0.78105       -0.00011
C          2.59749       -1.51260        0.00013
C          3.74947       -0.76295        0.00013
C          0.15552        1.50186       -0.00001
C         -0.15552       -1.50186       -0.00010
C         -1.31907       -0.78105       -0.00005
C         -2.59749        1.51260        0.00011
H         -2.70403        2.60118        0.00016
C         -3.74947        0.76295        0.00009
C         -3.77089       -0.69133        0.00000
C         -2.62559       -1.42794       -0.00008
H          0.22169        2.59956        0.00003
H          4.74217        1.18793        0.00001
H          2.67612        2.52052       -0.00023
H          2.70403       -2.60118        0.00022
H          4.72579       -1.25871        0.00022
H         -0.22169       -2.59956       -0.00017
H         -4.72579        1.25871        0.00014
H         -4.74217       -1.18793       -0.00001
H         -2.67612       -2.52052       -0.00015
B          1.25557       -0.78925       -0.00005
B         -1.25557        0.78925        0.00003
