24
AB4B8.log	Energy: -319807.2423469
C         -3.72187       -0.70453        0.00001
C         -2.45053       -1.37010        0.00001
C         -1.24253       -0.68544        0.00000
C         -1.23525        0.77015        0.00000
C         -3.84229        0.66699        0.00001
C          0.00550       -1.40131        0.00000
C         -0.00550        1.40131       -0.00002
C          1.24253        0.68544       -0.00001
C          1.23525       -0.77015       -0.00001
H          2.59446       -2.73825       -0.00001
C          3.84229       -0.66699        0.00000
C          3.72187        0.70453        0.00000
C          2.45053        1.37010        0.00000
H         -0.03016       -2.49380       -0.00002
H         -4.61115       -1.34157       -0.00001
H         -2.43620       -2.46185       -0.00001
H         -2.59446        2.73825       -0.00004
H         -4.85372        1.08125       -0.00001
H          0.03016        2.49380       -0.00002
H          4.85372       -1.08125        0.00002
H          4.61115        1.34157        0.00001
H          2.43620        2.46185        0.00000
B         -2.57264        1.53645        0.00006
B          2.57264       -1.53645       -0.00002
