12
BBN2.log	Energy: -146904.3903222
C          1.20721        0.63832        0.00000
H          2.29060       -1.15240        0.00003
H          2.07301        1.30271        0.00001
H         -2.29059       -1.15241        0.00002
H         -0.00001        2.29897        0.00001
C          1.28351       -0.72991        0.00000
H         -2.07301        1.30270        0.00001
B          0.00000       -1.55353       -0.00002
H          0.00000       -2.75681        0.00003
C         -1.28351       -0.72992        0.00000
C         -1.20722        0.63832        0.00000
N          0.00000        1.28914        0.00000
