12
BBN3.log	Energy: -146927.5580590
C         -1.05813       -0.86182        0.00000
H         -2.25001        0.77528        0.00000
H         -1.93362       -1.51083        0.00000
H          2.07284        1.51748        0.00000
H          0.36547       -2.44107        0.00000
H          2.33599       -0.92046        0.00000
B         -0.22646        1.47013        0.00000
H         -0.54057        2.62760        0.00000
C          1.17499        0.89595        0.00000
C          1.33649       -0.47560        0.00000
C          0.21917       -1.36213        0.00000
N         -1.27899        0.48899        0.00000
