12
BBN4.log	Energy: -146891.2335162
H         -2.00447        1.50432        0.00000
H         -2.19715       -0.75663        0.00000
H          2.47961        0.69162        0.00000
H         -0.56012       -2.36129        0.00000
H          1.83938       -1.68140        0.00000
B          0.33030        1.51401        0.00000
H          0.52931        2.69900       -0.00001
C          1.41091        0.45691        0.00000
C          1.07527       -0.90077        0.00000
C         -0.25407       -1.31829        0.00000
C         -1.06532        0.94878        0.00000
N         -1.24841       -0.39792        0.00000
