12
BBNBN6.log	Energy: -149059.9705338
C          1.34036        0.68480        0.00000
H          2.29791       -1.21660       -0.00002
H          2.29791        1.21660       -0.00002
H         -2.09594       -1.09591       -0.00003
B          0.01186        1.46223        0.00002
H         -0.12343        2.65349        0.00000
C          1.34036       -0.68480       -0.00001
H         -2.09594        1.09591       -0.00001
B          0.01186       -1.46223        0.00003
H         -0.12343       -2.65349       -0.00001
N         -1.16857       -0.69345        0.00000
N         -1.16857        0.69345       -0.00001
