12
BBNBN7.log	Energy: -149074.9265167
C         -1.56004       -0.00001        0.00000
C          1.33644        0.00001        0.00000
H         -2.65248       -0.00002        0.00000
H         -1.19560       -2.41383        0.00000
H          1.26313       -1.98083        0.00000
H          2.42614        0.00002        0.00000
H          1.26310        1.98085        0.00000
H         -1.19562        2.41382        0.00000
B         -0.80594        1.27664        0.00000
B         -0.80592       -1.27665        0.00000
N          0.67800        1.15443        0.00000
N          0.67802       -1.15442        0.00000
