12
BBNBN15.log	Energy: -149070.4537039
C         -1.25330        0.71306        0.00000
C          1.25331        0.71305        0.00000
H          0.00001        2.73404       -0.00001
H         -2.27004        1.11549        0.00000
H         -2.09212       -1.14661        0.00000
H         -0.00002       -2.61346        0.00000
H          2.09211       -1.14664        0.00000
H          2.27005        1.11546        0.00000
N         -1.20516       -0.65603        0.00000
N          1.20515       -0.65605        0.00000
B         -0.00001       -1.42024        0.00000
B          0.00001        1.53415        0.00000
