18
NBNBN18.log	Energy: -244851.6631263
C          0.56592       -1.62173        0.00000
C         -0.51514       -0.74860        0.00000
C          0.56592        1.62173        0.00000
C         -0.51514        0.74860        0.00000
H          3.62915        0.00000        0.00001
H          0.28021       -2.67983        0.00000
H          0.28021        2.67983        0.00000
C         -1.88502       -1.13396        0.00001
H         -2.33819       -2.11734        0.00001
H         -3.64139        0.00000       -0.00001
C         -1.88502        1.13396        0.00000
H         -2.33819        2.11734        0.00001
N         -2.62890        0.00000       -0.00001
N          2.61332        0.00000        0.00000
B          2.05695        1.32071        0.00000
H          2.83938        2.23711        0.00001
B          2.05695       -1.32071       -0.00001
H          2.83938       -2.23711        0.00001
