24
PB1aB8a.log	Energy: -319797.7533878
C          3.60778       -0.33093        0.00032
C          3.00786        0.89469        0.00045
C          0.69496       -0.41273       -0.00022
C          1.49501       -1.62951       -0.00033
C          2.85533       -1.58265       -0.00010
C          0.67714        2.32753       -0.00026
C         -0.69496       -0.41273       -0.00013
C         -0.67714        2.32752       -0.00027
C         -3.00785        0.89469        0.00019
H         -3.65079        1.77938        0.00029
C         -3.60778       -0.33093        0.00026
C         -2.85533       -1.58265        0.00013
C         -1.49501       -1.62951       -0.00006
H          1.21612        3.28321       -0.00038
H          4.69857       -0.42045        0.00052
H          3.65079        1.77938        0.00076
H          1.01266       -2.60698       -0.00059
H          3.42449       -2.51371       -0.00020
H         -1.21612        3.28321       -0.00040
H         -4.69857       -0.42045        0.00041
H         -3.42449       -2.51371        0.00019
H         -1.01267       -2.60698       -0.00014
B          1.47264        0.97603        0.00000
B         -1.47263        0.97603       -0.00006
