24
PB4aB5a.log	Energy: -319782.3610989
C          3.76815       -0.11595        0.00019
C          2.97470        0.99140        0.00060
C          1.52964        0.85370        0.00040
C          1.86687       -1.73482       -0.00069
C          3.21314       -1.46168       -0.00050
C          0.73158        1.97081        0.00012
C         -1.52964        0.85371       -0.00037
C         -0.73158        1.97081       -0.00027
C         -2.97470        0.99140       -0.00051
H         -3.42500        1.98838       -0.00092
C         -3.76815       -0.11595       -0.00008
C         -3.21314       -1.46168        0.00050
C         -1.86687       -1.73482        0.00060
H          1.19848        2.96293        0.00015
H          4.85390       -0.00980        0.00033
H          3.42499        1.98838        0.00106
H          1.57431       -2.78863       -0.00120
H          3.94089       -2.28010       -0.00086
H         -1.19847        2.96293       -0.00039
H         -4.85390       -0.00980       -0.00015
H         -3.94089       -2.28010        0.00084
H         -1.57430       -2.78863        0.00102
B          0.86380       -0.57872       -0.00002
B         -0.86380       -0.57872        0.00005
