24
PB4B5.log	Energy: -319800.7170987
C          3.62123       -0.30928        0.00009
C          2.79903        0.87548        0.00012
C          1.41733        0.85979        0.00003
C          0.69803       -0.41897       -0.00005
C          3.09361       -1.57267       -0.00005
C          0.67775        2.10261       -0.00002
C         -0.69803       -0.41897       -0.00007
C         -1.41733        0.85979       -0.00007
C         -0.67775        2.10261       -0.00008
C         -2.79903        0.87548       -0.00002
H         -3.30493        1.84336       -0.00003
C         -3.62123       -0.30928        0.00009
C         -3.09361       -1.57267        0.00012
H          1.23624        3.03988        0.00000
H          4.70413       -0.15209        0.00016
H          3.30493        1.84336        0.00019
H          3.78584       -2.41753       -0.00011
H         -1.23624        3.03988       -0.00012
H         -4.70413       -0.15209        0.00015
H         -3.78584       -2.41753        0.00021
B          1.56833       -1.74249       -0.00007
H          1.06566       -2.82293       -0.00007
B         -1.56833       -1.74249       -0.00005
H         -1.06566       -2.82293       -0.00023
