16
QDM15C46.log	Energy: -262994.9721531
C         -0.60140        1.01114        0.00000
C          0.61908        1.76564        0.00004
C          1.77441        1.04059        0.00001
C          1.83656       -0.43005       -0.00009
C          0.56943       -1.17932       -0.00014
C         -0.56057       -0.45134       -0.00008
H          0.63243        2.85503        0.00004
H          2.73290        1.56332        0.00002
H          0.58671       -2.26889       -0.00014
C         -2.10190       -0.40856       -0.00001
C         -1.98371        1.09001       -0.00009
O         -2.99187       -1.22166        0.00043
C          3.04595       -1.04894       -0.00012
H          3.97517       -0.48025       -0.00011
H          3.12516       -2.13561       -0.00018
H         -2.70455        1.90462       -0.00011
