18
QDM2C56.log	Energy: -240536.4440777
C          0.22512        0.71928        0.00000
C          0.00000       -0.75366        0.00000
C          1.13888       -1.63656        0.00000
C          2.39358       -1.10104        0.00000
C          2.61327        0.33613        0.00000
C          1.57571        1.22187        0.00000
C         -0.99211        1.35231        0.00000
C         -2.03035        0.31004        0.00000
C         -1.35065       -0.99464        0.00000
H          0.99008       -2.71692        0.00000
H          3.26529       -1.75674        0.00000
H          3.64103        0.70154        0.00000
H          1.75605        2.29742        0.00000
H         -1.18382        2.42222        0.00000
H         -1.85273       -1.95865        0.00000
C         -3.36687        0.51460        0.00000
H         -4.06881       -0.31979        0.00000
H         -3.78648        1.52097        0.00000
