18
QDM5C56.log	Energy: -240535.0525127
C         -1.09201       -0.12729        0.00000
C          0.00000        0.86419        0.00000
C          1.29762        0.46391        0.00000
C          1.62596       -0.96287        0.00000
C          0.52784       -1.93039        0.00000
C         -0.77261       -1.52898        0.00000
C         -2.27861        0.56784        0.00000
C         -1.97647        2.00012        0.00000
C         -0.62063        2.18804        0.00000
H          0.78499       -2.98977        0.00000
H         -1.57839       -2.26467        0.00000
H         -3.27900        0.13934        0.00000
H         -0.08851        3.13582        0.00000
H         -2.72804        2.78784        0.00000
H          2.11905        1.18310        0.00000
C          2.92724       -1.35876        0.00000
H          3.20005       -2.41404        0.00000
H          3.73977       -0.63251        0.00000
