22
QDM6C67.log	Energy: -288792.7775674
C         -2.43970        0.85306       -0.00016
C         -2.21372       -0.59122        0.00007
C         -0.87043       -1.15681       -0.00009
C         -1.54905        1.88211       -0.00016
C          0.39729       -0.61902       -0.00009
C         -0.11459        1.87168        0.00002
C          0.76971        0.81385        0.00005
H         -3.49493        1.13705       -0.00032
H         -0.88410       -2.25015       -0.00019
H         -1.98908        2.88188       -0.00032
H          0.34395        2.86267        0.00011
C          2.18525        1.13693        0.00018
H          2.45547        2.19356        0.00031
C          1.49510       -1.58095       -0.00018
H          1.23050       -2.63888       -0.00032
C          2.80228       -1.21136       -0.00008
C          3.15791        0.18644        0.00012
H          4.20905        0.47572        0.00020
H          3.58724       -1.96774       -0.00015
C         -3.28602       -1.43773        0.00031
H         -4.30611       -1.05751        0.00039
H         -3.15617       -2.51858        0.00043
